
*************** JDFTx 1.7  ***************
+++++++++++++++ Linked to JDFTx 1.7.0 (git hash 69d1b07) +++++++++++++++

Start date and time: Mon Apr 29 07:19:25 2024
Executable /data/groups/ping/zbai15/soft/DMD_Initialization/build-FeynWann/lindbladInit_for-DMD-4.5.6//init_for-DMD with command-line: -i lindbladInit.in
Running on hosts (process indices):  node045 (0-15)  node046 (16-31)  node047 (32-47)  node048 (48-63)
Divided in process groups (process indices):  0 (0)  1 (1)  2 (2)  3 (3)  4 (4)  5 (5)  6 (6)  7 (7)  8 (8)  9 (9)  10 (10)  11 (11)  12 (12)  13 (13)  14 (14)  15 (15)  16 (16)  17 (17)  18 (18)  19 (19)  20 (20)  21 (21)  22 (22)  23 (23)  24 (24)  25 (25)  26 (26)  27 (27)  28 (28)  29 (29)  30 (30)  31 (31)  32 (32)  33 (33)  34 (34)  35 (35)  36 (36)  37 (37)  38 (38)  39 (39)  40 (40)  41 (41)  42 (42)  43 (43)  44 (44)  45 (45)  46 (46)  47 (47)  48 (48)  49 (49)  50 (50)  51 (51)  52 (52)  53 (53)  54 (54)  55 (55)  56 (56)  57 (57)  58 (58)  59 (59)  60 (60)  61 (61)  62 (62)  63 (63)
Resource initialization completed at t[s]:      0.01
Run totals: 64 processes, 160 threads, 0 GPUs

Inputs after conversion to atomic units:
NkMult = [  1  1  1  ]
dmuMin = 0.0525515
dmuMax = 0.0525515
Tmax = 0.000950043
nkBT = 7
pumpOmegaMax = 0.0540215
pumpTau = 2067.07
probeOmegaMax = 0.0734986
band_skipped = 0
assumeMetal = 0
assumeMetal_scatt = 0
useFinek_for_ERange = 0
EBot_set = 0
ETop_set = -0.0367493
kparis_eph_eimp = 0
read_kpts = 0
read_kpts_2nd = 0
read_kpairs = 0
read_erange_brange = 0
ePhMode = DiagK
ePhOnlyElec = 1
ePhOnlyHole = 0
onlyInterValley = 0
onlyIntraValley = 0
modeStart = 0
modeStop = -1
modeSkipStart = 0
modeSkipStop = -1
detailBalance = 0
ePhDelta = 0.000183747
nEphDelta = 1000
omegabyTCut = 0.001
ePhOmegaCut = 1e-06
maxNeighbors = 0
degthr = 1e-08
defectName = 
iDefect = 1
eScattOnlyElec = 1
eScattOnlyHole = 0
scattDelta = 0.000183747
nScattDelta = 1000
detailBalance_defect = 0
omegaL = 9.50043e-08
DEBUG = 0
needConventional = 0
writeU = 1
write_sparseP = 0
writegm = 1
keepgm = 0
mergegm = 0
layerOcc = 0
writeHEz = 0
needOmegaPhMax = 1
save_dHePhSum_disk = 1
needL = 0
gfac_mean = 2.00232 2.00232 2.00232
gfac_sigma = 0 0 0
gfac_cap = 0 0 0
read_gfack = 0
Bext = [  0  0  0  ]
orbitalZeeman = no
EzExt = 0
scissor = 0.0155905
EshiftWeight = 0
bandSumLQ = no
enforceKramerDeg = no
degeneracyThreshold = 3.67493e-06
trunc_iDi_outer = 0

Reading 'Wannier/totalE.out' ... done.
NOTE: mu unavailable; assuming semiconductor/insulator and setting to VBM.
Reading 'Wannier/totalE.eigenvals' ... done.
mu = 0.180239
nElectrons = 8
nBandsDFT = 34
nSpins = 1
nSpinor = 2
spinSuffix = ''
kfold = [  24  24  24  ]
isTruncated = [  0  0  0  ]
R:
[  0  5.34145  5.34145  ]
[  5.34145  0  5.34145  ]
[  5.34145  5.34145  0  ]
Atoms with fractional coordinates:
	Ga   0.000000000000000   0.000000000000000   0.000000000000000
	As   0.250000000000000   0.250000000000000   0.250000000000000

Reading 'Wannier/wannier.mlwfCellMap' ... done.
Reading 'Wannier/wannier.mlwfBandContrib' ... done.
nBands = 16


Reading 'Wannier/wannier.out' ... done.
EminInner = -0.4
EmaxInner = 0.318
Reading 'Wannier/wannier.mlwfCellWeights' ... done.

Reading 'Wannier/phonon.out' ... done.
nModes = 6
phononSup = [  4  4  4  ]

Reading 'Wannier/totalE.phononBasis' ... done.
Reading 'Wannier/totalE.phononCellMap' ... done.
Reading 'Wannier/totalE.phononOmegaSq' ... done.
Reading 'Wannier/wannier.mlwfCellMapPh' ... done.
Reading 'Wannier/wannier.mlwfCellMapPhSum' ... done.
Reading 'Wannier/wannier.mlwfCellWeightsPh' ... done.
Reading 'Wannier/wannier.mlwfHePh' ... done.
Reading 'Wannier/wannier.mlwfHePhSum' ... done.
Reading 'Wannier/wannier.mlwfD' ... done.

Reading 'Wannier/wannier.out' ... done.
polar = yes

Reading 'Wannier/totalE.Zeff' ... done.
Reading 'Wannier/totalE.epsInf' ... done.
Reading 'Wannier/totalE.phononCellWeights' ... done.
Reading 'Wannier/wannier.mlwfH' ... done.
Reading 'Wannier/wannier.mlwfP' ... done.
Reading 'Wannier/wannier.mlwfS' ... done.

modeStop = 6
Maximum phonon energy: 37.5674 meV

carrier_density = 0 a.u.
Carrier density:  0.0000000e+00 cm^-3

Effective interpolated k-mesh dimensions: [  24  24  24  ]
Effectively sampled nKpts: 13824

find number of DFT bands skipped in Wannier
band_skipped = 0

Determin VBM and CBM using DFT k meshes
Reading 'Wannier/totalE.eigenvals' ... done.
VBM: 0.000000 eV, CBM: 1.429999 eV, Middle: 0.714999
Note that VBM and CBM may not be determined correctly,
you may have to use band_skipped to set starting band index of wannier bands

The system is not metalic
Emargin = 0.181 eV
Active energy range for probe: -2.172 to 3.677 eV
Active energy range for kpointSelect: 0.715 to 1.611 eV
Active energy range for density matrix: -0.106 to 1.611 eV

bBot_probe= 2 bTop_probe= 12
bBot_dm= 4 bTop_dm= 10
bBot_eph= 8 bTop_eph= 10 bCBM= 8
Scanning k-points with active states: done.
Found 1 k-points with active states from  1.38240000000000e+04 total k-points (13824x reduction)

saveR done
saveSize done
saveEk done

dmu =  5.25515330209184e-02 ( 1.43000000000000e+00 eV)

Compute StateE in parallel: done
bcastState_JX done

size of E: 10
size of U: 16 2
size of S: 6 6
size of L: 0 0
size of v: 6 10


At dmuMax, majority density: Carrier density:  1.6016434e+18 cm^-3
At dmuMax, minority density: Carrier density:  0.0000000e+00 cm^-3
At dmuMin, majority density: Carrier density:  1.6016434e+18 cm^-3
At dmuMin, minority density: Carrier density:  0.0000000e+00 cm^-3
saveElec done

Spin mixing |b|^2: 2.25459e-13 2.25625e-13 2.26708e-13

For kpairSelect: Estart= 0.0262757 Estop= 0.0592018 bStart= 8 bStop= 10

Number of pairs: 1

Randomly rearranging kpairs done
bcast kpairs done
saveSize done
saveKpair done

For ePh: Estart= 0.714999 eV Estop= 1.61096 eV bStart= 8 bStop= 10

Compute EPH: 

imsig_min = 1.28534e-36 eV imsig_max = 1.28534e-36 eV
Active energy range for printing ImSigma(E): 1.395 to 1.611 eV
done.

dSz = 0 Szdot = 0 T1z = -nan ps
dSz = -1.61968e-07 Szdot = 0 T1z = inf ps
dSz = -1.61968e-08 Szdot = 0 T1z = inf ps

Merge ldbd_data/ldbd_P1_lindblad.bin
Merge ldbd_data/ldbd_P2_lindblad.bin

drhosdeg = 1 obsdeg = 1 imsigma_eph = 0 fac_imsig = 0 impurity_broadening = 0 eV
dS[2] = -0.0380709 Sdot[2] = 3.21586e-39 T1 = 1.30847e+32 1.66795e+32 2.86359e+32 ps

**************************************************
dRho formula with constant smearings:
**************************************************

drhosdeg = 0 obsdeg = 0 imsigma_eph = 1 fac_imsig = 0 impurity_broadening = 0.001 eV
dS[2] = -0.0380709 Sdot[2] = 1.7273e-257 T1 = 2.43609e+250 3.10536e+250 5.33139e+250 ps

drhosdeg = 0 obsdeg = 0 imsigma_eph = 1 fac_imsig = 0 impurity_broadening = 0.005 eV
dS[2] = -0.0380709 Sdot[2] = 7.2465e-39 T1 = 5.80674e+31 7.40203e+31 1.27081e+32 ps

**************************************************
dRho formula with ImSigma_eph + a constant:
**************************************************

drhosdeg = 0 obsdeg = 0 imsigma_eph = 1 fac_imsig = 1 impurity_broadening = 0 eV
dS[2] = -0.0380709 Sdot[2] = 0 T1 = inf inf inf ps

drhosdeg = 0 obsdeg = 0 imsigma_eph = 1 fac_imsig = 0.5 impurity_broadening = 0 eV
dS[2] = -0.0380709 Sdot[2] = 0 T1 = inf inf inf ps

drhosdeg = 0 obsdeg = 0 imsigma_eph = 1 fac_imsig = 1 impurity_broadening = 0.001 eV
dS[2] = -0.0380709 Sdot[2] = 1.7273e-257 T1 = 2.43609e+250 3.10536e+250 5.33139e+250 ps

drhosdeg = 0 obsdeg = 0 imsigma_eph = 1 fac_imsig = 1 impurity_broadening = 0.005 eV
dS[2] = -0.0380709 Sdot[2] = 7.2465e-39 T1 = 5.80674e+31 7.40203e+31 1.27081e+32 ps

Delete gm:

defect_fraction = 0
End date and time: Mon Apr 29 07:26:41 2024  (Duration: 0-0:07:16.34)
Done!

PROFILER:    DistributedMatrix::compute1     0.151382 +/-     0.094075 s,   10 calls,      1.513823 s total
PROFILER:  DistributedMatrix::transform1     0.177186 +/-     0.070068 s, 1945 calls,    344.626553 s total
PROFILER:       FeynWann::eLoop:callback     0.000000 +/-     0.000001 s, 41472 calls,      0.005003 s total
PROFILER:      FeynWann::phLoop:callback     0.000003 +/-     0.000022 s,   64 calls,      0.000174 s total
PROFILER:  FeynWann::setState:rotations1     0.000000 +/-     0.000001 s, 41474 calls,      0.001970 s total
PROFILER:  FeynWann::setState:rotations2     0.000000 +/-     0.000000 s,    1 calls,      0.000000 s total
PROFILER:            matrix::diagonalize     0.000070 +/-     0.000907 s, 41538 calls,      2.923695 s total

MEMUSAGE:                         matrix     0.119125 GB
MEMUSAGE:                           misc     0.727481 GB
MEMUSAGE:                          Total     0.787047 GB
